#%Module
#
# DL_POLY Classic 1.9
#
#                                                      H.K. July 2015

proc ModulesHelp { } {

    puts stderr "This module adds the DL_POLY Classic 1.9 package to your environment."
    puts stderr ""
}

module-whatis "Adds DL_POLY Classic 1.9 to your environment"

prereq gcc-libs/4.9.2
prereq compilers/intel/2015/update2
prereq mpi/intel/2015/update3/intel

conflict dl_poly

prepend-path PATH      /shared/ucl/apps/dl_poly/classic/1.9/intel-2015-update2/execute
