#%Module -*- tcl -*-
#
# DL_POLY 4.07, 64 bit
#
#                                                      H.K. 20th April 2015

lappend auto_path /shared/ucl/apps/modulelibs/UsefulModuleFunctions
package require modulefunctions 1.0

proc ModulesHelp { } {

    puts stderr "This module adds the DL_POLY 4.07 package to your environment."
    puts stderr ""
}

module-whatis "Adds DL_POLY 4.07 to your environment"

proc getClusterName { } {

    set name ""
    set hostnames [exec hostname -A]
    if { [string match *legion* $hostnames] == 1 } {
        set name "Legion"
    } elseif { [string match *grace* $hostnames] == 1 } {
        set name "Grace"
    } elseif { [string match *aristotle* $hostnames] == 1 } {
        set name "Aristotle"
    } else {
        set name "unknown"
    }
    return $name
}

# on load, check if user is in the correct group
if [modulefunctions::isModuleLoad] {
    if { [string match Grace [getClusterName]] == 1 } {
        modulefunctions::isMember "lgdlp407"
    } else {
        modulefunctions::isMember "legdlp407"
    }
}

# Add DL_Poly binary to PATH
prereq gcc-libs/4.9.2
prereq compilers/intel/2015/update2
prereq mpi/intel/2015/update3/intel

conflict dl_poly

prepend-path PATH      /shared/ucl/apps/dl_poly/4.07/intel-2015-update2/execute/
