#%Module -*- tcl -*-
#
# DL_POLY 4.08, 64 bit
#
#                                                      H.K. March 2016

lappend auto_path /shared/ucl/apps/modulelibs/UsefulModuleFunctions
package require modulefunctions 1.0

proc ModulesHelp { } {

    puts stderr "This module adds the DL_POLY 4.08 package to your environment."
    puts stderr ""
}

module-whatis "Adds DL_POLY 4.08 to your environment."

modulefunctions::mustBeMemberToLoad "lgdlp408"

# Add DL_Poly binary to PATH
prereq gcc-libs
prereq compilers/intel
prereq mpi/intel

conflict dl_poly

prepend-path PATH      /shared/ucl/apps/dl_poly/4.08/intel-2015-update2/execute
